LAMMPS data file. CGCMM style. atom_style full generated by VMD/TopoTools v1.7 on Sat Jun 27 11:18:13 AEST 2020
 7860 atoms
 3560 bonds
 1780 angles
 0 dihedrals
 0 impropers
 3 atom types
 1 bond types
 1 angle types
 0 dihedral types
 0 improper types
  -60.3140 60.3140  xlo xhi
  -60.3140 60.3140  ylo yhi
  0.0000 51.5788  zlo zhi

# Pair Coeffs
#
# 1  1HT
# 2  2OT
# 3  3CA1

# Bond Coeffs
#
# 1  

# Angle Coeffs
#
# 1  unknown

 Masses

 1 1.007940 # 1HT
 2 15.999400 # 2OT
 3 12.010700 # 3CA1

 Atoms # full

1 1 2 -0.847600 -9.656000 -6.468000 30.492001 # 2OT TIP3
2 1 1 0.423800 -9.688000 -6.453000 31.451000 # 1HT TIP3
3 1 1 0.423800 -9.533000 -5.579000 30.158001 # 1HT TIP3
4 2 2 -0.847600 -4.479000 1.412000 21.934000 # 2OT TIP3
5 2 1 0.423800 -4.794000 0.777000 21.287001 # 1HT TIP3
6 2 1 0.423800 -3.779000 1.943000 21.552999 # 1HT TIP3
7 3 2 -0.847600 -7.135000 3.689000 12.656000 # 2OT TIP3
8 3 1 0.423800 -7.696000 4.075000 13.332000 # 1HT TIP3
9 3 1 0.423800 -7.165000 4.227000 11.864000 # 1HT TIP3
10 4 2 -0.847600 6.481000 -4.233000 36.783001 # 2OT TIP3
11 4 1 0.423800 5.566000 -3.951000 36.705002 # 1HT TIP3
12 4 1 0.423800 6.546000 -5.172000 36.610001 # 1HT TIP3
13 5 2 -0.847600 10.049000 5.610000 7.619000 # 2OT TIP3
14 5 1 0.423800 10.802000 5.820000 8.175000 # 1HT TIP3
15 5 1 0.423800 10.269000 4.882000 7.037000 # 1HT TIP3
16 6 2 -0.847600 0.363000 -10.631000 29.224001 # 2OT TIP3
17 6 1 0.423800 0.026000 -10.779000 28.337999 # 1HT TIP3
18 6 1 0.423800 0.871000 -11.392000 29.509001 # 1HT TIP3
19 7 2 -0.847600 -9.633000 2.948000 16.570000 # 2OT TIP3
20 7 1 0.423800 -9.879000 2.029000 16.698999 # 1HT TIP3
21 7 1 0.423800 -10.383000 3.513000 16.756001 # 1HT TIP3
22 8 2 -0.847600 14.318000 -5.202000 44.618000 # 2OT TIP3
23 8 1 0.423800 13.933000 -4.326000 44.681000 # 1HT TIP3
24 8 1 0.423800 13.669000 -5.860000 44.873001 # 1HT TIP3
25 9 2 -0.847600 1.558000 15.946000 19.007000 # 2OT TIP3
26 9 1 0.423800 1.736000 15.089000 18.614000 # 1HT TIP3
27 9 1 0.423800 2.339000 16.497000 18.951000 # 1HT TIP3
28 10 2 -0.847600 9.506000 -11.673000 4.621000 # 2OT TIP3
29 10 1 0.423800 10.043000 -12.108000 3.956000 # 1HT TIP3
30 10 1 0.423800 8.594000 -11.642000 4.332000 # 1HT TIP3
31 11 2 -0.847600 -10.138000 -5.923000 18.884001 # 2OT TIP3
32 11 1 0.423800 -9.195000 -5.793000 18.764999 # 1HT TIP3
33 11 1 0.423800 -10.307000 -6.816000 19.188000 # 1HT TIP3
34 12 2 -0.847600 17.100000 -0.790000 7.388000 # 2OT TIP3
35 12 1 0.423800 16.724001 -1.220000 6.617000 # 1HT TIP3
36 12 1 0.423800 16.712000 -1.155000 8.184000 # 1HT TIP3
37 13 2 -0.847600 8.691000 -7.237000 48.000000 # 2OT TIP3
38 13 1 0.423800 8.163000 -6.443000 47.900002 # 1HT TIP3
39 13 1 0.423800 9.599000 -7.001000 48.194000 # 1HT TIP3
40 14 2 -0.847600 -12.287000 10.445000 39.720001 # 2OT TIP3
41 14 1 0.423800 -13.114000 10.683000 39.294998 # 1HT TIP3
42 14 1 0.423800 -11.593000 11.043000 39.438000 # 1HT TIP3
43 15 2 -0.847600 -7.355000 -9.636000 24.716999 # 2OT TIP3
44 15 1 0.423800 -8.210000 -9.964000 25.006001 # 1HT TIP3
45 15 1 0.423800 -7.337000 -9.576000 23.761000 # 1HT TIP3
46 16 2 -0.847600 6.589000 -0.274000 22.013000 # 2OT TIP3
47 16 1 0.423800 6.554000 -0.061000 22.948000 # 1HT TIP3
48 16 1 0.423800 6.051000 0.347000 21.518999 # 1HT TIP3
49 17 2 -0.847600 11.028000 -2.088000 41.282001 # 2OT TIP3
50 17 1 0.423800 11.632000 -2.645000 41.778000 # 1HT TIP3
51 17 1 0.423800 11.370000 -1.194000 41.242001 # 1HT TIP3
52 18 2 -0.847600 -7.727000 0.585000 5.226000 # 2OT TIP3
53 18 1 0.423800 -8.650000 0.727000 5.008000 # 1HT TIP3
54 18 1 0.423800 -7.545000 0.923000 6.103000 # 1HT TIP3
55 19 2 -0.847600 7.425000 5.581000 6.677000 # 2OT TIP3
56 19 1 0.423800 8.075000 4.901000 6.865000 # 1HT TIP3
57 19 1 0.423800 6.593000 5.175000 6.430000 # 1HT TIP3
58 20 2 -0.847600 -13.402000 7.179000 1.491000 # 2OT TIP3
59 20 1 0.423800 -14.334000 7.288000 1.692000 # 1HT TIP3
60 20 1 0.423800 -12.984000 8.037000 1.417000 # 1HT TIP3
61 21 2 -0.847600 -5.353000 12.282000 45.067001 # 2OT TIP3
62 21 1 0.423800 -4.558000 11.768000 45.221001 # 1HT TIP3
63 21 1 0.423800 -5.127000 13.209000 44.977001 # 1HT TIP3
64 22 2 -0.847600 14.754000 -1.176000 9.570000 # 2OT TIP3
65 22 1 0.423800 13.869000 -0.899000 9.321000 # 1HT TIP3
66 22 1 0.423800 14.782000 -1.363000 10.509000 # 1HT TIP3
67 23 2 -0.847600 -4.267000 13.775000 23.892000 # 2OT TIP3
68 23 1 0.423800 -3.872000 13.037000 23.421000 # 1HT TIP3
69 23 1 0.423800 -4.566000 14.436000 23.266001 # 1HT TIP3
70 24 2 -0.847600 5.089000 5.777000 36.469002 # 2OT TIP3
71 24 1 0.423800 5.920000 5.889000 36.935001 # 1HT TIP3
72 24 1 0.423800 4.588000 6.593000 36.499001 # 1HT TIP3
73 25 2 -0.847600 -6.098000 14.652000 42.002998 # 2OT TIP3
74 25 1 0.423800 -6.492000 13.828000 41.707001 # 1HT TIP3
75 25 1 0.423800 -5.278000 14.472000 42.464001 # 1HT TIP3
76 26 2 -0.847600 10.372000 -11.124000 28.083000 # 2OT TIP3
77 26 1 0.423800 9.538000 -11.079000 27.611000 # 1HT TIP3
78 26 1 0.423800 10.236000 -10.898000 29.004000 # 1HT TIP3
79 27 2 -0.847600 -7.281000 -12.561000 29.048000 # 2OT TIP3
80 27 1 0.423800 -8.185000 -12.254000 29.142000 # 1HT TIP3
81 27 1 0.423800 -7.179000 -13.407000 29.483999 # 1HT TIP3
82 28 2 -0.847600 -6.679000 -14.354000 20.257999 # 2OT TIP3
83 28 1 0.423800 -6.547000 -14.868000 21.056999 # 1HT TIP3
84 28 1 0.423800 -6.677000 -14.934000 19.496000 # 1HT TIP3
85 29 2 -0.847600 16.290001 4.662000 21.584999 # 2OT TIP3
86 29 1 0.423800 16.370001 3.940000 22.211000 # 1HT TIP3
87 29 1 0.423800 16.465000 4.344000 20.698999 # 1HT TIP3
88 30 2 -0.847600 -7.933000 7.790000 29.684999 # 2OT TIP3
89 30 1 0.423800 -7.470000 7.080000 30.135000 # 1HT TIP3
90 30 1 0.423800 -8.430000 7.436000 28.947001 # 1HT TIP3
91 31 2 -0.847600 -11.155000 -6.458000 27.750000 # 2OT TIP3
92 31 1 0.423800 -10.449000 -6.652000 28.371000 # 1HT TIP3
93 31 1 0.423800 -11.990000 -6.766000 28.101999 # 1HT TIP3
94 32 2 -0.847600 13.093000 -1.828000 43.334000 # 2OT TIP3
95 32 1 0.423800 13.728000 -1.439000 43.938999 # 1HT TIP3
96 32 1 0.423800 13.225000 -2.776000 43.289001 # 1HT TIP3
97 33 2 -0.847600 -13.210000 -6.429000 12.010000 # 2OT TIP3
98 33 1 0.423800 -12.917000 -5.695000 12.554000 # 1HT TIP3
99 33 1 0.423800 -12.678000 -7.204000 12.196000 # 1HT TIP3
100 34 2 -0.847600 -3.068000 7.567000 1.463000 # 2OT TIP3
101 34 1 0.423800 -3.805000 7.303000 2.018000 # 1HT TIP3
102 34 1 0.423800 -2.945000 8.515000 1.516000 # 1HT TIP3
103 35 2 -0.847600 -13.644000 -2.186000 39.541000 # 2OT TIP3
104 35 1 0.423800 -13.794000 -3.112000 39.743999 # 1HT TIP3
105 35 1 0.423800 -12.922000 -1.851000 40.073002 # 1HT TIP3
106 36 2 -0.847600 -12.601000 -4.675000 44.123001 # 2OT TIP3
107 36 1 0.423800 -12.485000 -5.325000 43.426998 # 1HT TIP3
108 36 1 0.423800 -12.401000 -5.070000 44.973000 # 1HT TIP3
109 37 2 -0.847600 0.107000 5.219000 27.888000 # 2OT TIP3
110 37 1 0.423800 0.952000 4.786000 27.745001 # 1HT TIP3
111 37 1 0.423800 -0.542000 4.576000 28.176001 # 1HT TIP3
112 38 2 -0.847600 -5.390000 -12.157000 49.387001 # 2OT TIP3
113 38 1 0.423800 -5.313000 -12.512000 48.498001 # 1HT TIP3
114 38 1 0.423800 -5.391000 -12.873000 50.022999 # 1HT TIP3
115 39 2 -0.847600 7.358000 13.458000 12.181000 # 2OT TIP3
116 39 1 0.423800 7.541000 13.995000 12.955000 # 1HT TIP3
117 39 1 0.423800 6.870000 13.974000 11.537000 # 1HT TIP3
118 40 2 -0.847600 -9.700000 -12.030000 16.979000 # 2OT TIP3
119 40 1 0.423800 -10.439000 -11.496000 17.278000 # 1HT TIP3
120 40 1 0.423800 -10.012000 -12.713000 16.385000 # 1HT TIP3
121 41 2 -0.847600 -2.381000 -5.565000 16.056000 # 2OT TIP3
122 41 1 0.423800 -3.298000 -5.378000 15.842000 # 1HT TIP3
123 41 1 0.423800 -1.979000 -4.794000 16.459000 # 1HT TIP3
124 42 2 -0.847600 9.567000 0.696000 15.881000 # 2OT TIP3
125 42 1 0.423800 10.289000 1.034000 16.416000 # 1HT TIP3
126 42 1 0.423800 9.283000 -0.153000 16.221001 # 1HT TIP3
127 43 2 -0.847600 -16.448999 4.889000 10.102000 # 2OT TIP3
128 43 1 0.423800 -16.237000 5.766000 10.429000 # 1HT TIP3
129 43 1 0.423800 -17.365000 4.861000 9.822000 # 1HT TIP3
130 44 2 -0.847600 -0.198000 12.925000 23.580000 # 2OT TIP3
131 44 1 0.423800 -0.195000 12.010000 23.292000 # 1HT TIP3
132 44 1 0.423800 -1.075000 13.168000 23.879000 # 1HT TIP3
133 45 2 -0.847600 10.776000 1.407000 37.785999 # 2OT TIP3
134 45 1 0.423800 9.933000 1.863000 37.827000 # 1HT TIP3
135 45 1 0.423800 11.419000 1.865000 38.327999 # 1HT TIP3
136 46 2 -0.847600 -5.839000 -9.015000 26.726999 # 2OT TIP3
137 46 1 0.423800 -5.749000 -9.818000 26.209000 # 1HT TIP3
138 46 1 0.423800 -6.748000 -8.714000 26.701000 # 1HT TIP3
139 47 2 -0.847600 -3.803000 9.907000 13.920000 # 2OT TIP3
140 47 1 0.423800 -3.020000 10.421000 14.127000 # 1HT TIP3
141 47 1 0.423800 -3.556000 8.999000 13.738000 # 1HT TIP3
142 48 2 -0.847600 -10.213000 8.511000 41.910000 # 2OT TIP3
143 48 1 0.423800 -10.199000 9.470000 41.905998 # 1HT TIP3
144 48 1 0.423800 -10.872000 8.199000 42.530998 # 1HT TIP3
145 49 2 -0.847600 -14.847000 -0.854000 41.573002 # 2OT TIP3
146 49 1 0.423800 -14.709000 -0.615000 40.653999 # 1HT TIP3
147 49 1 0.423800 -14.408000 -1.685000 41.761002 # 1HT TIP3
148 50 2 -0.847600 -8.591000 2.442000 24.014000 # 2OT TIP3
149 50 1 0.423800 -8.549000 1.901000 23.222000 # 1HT TIP3
150 50 1 0.423800 -8.524000 1.885000 24.790001 # 1HT TIP3
151 51 2 -0.847600 -0.880000 16.759001 17.361000 # 2OT TIP3
152 51 1 0.423800 -1.345000 15.934000 17.204000 # 1HT TIP3
153 51 1 0.423800 0.044000 16.580000 17.540001 # 1HT TIP3
154 52 2 -0.847600 7.865000 4.455000 33.904999 # 2OT TIP3
155 52 1 0.423800 8.613000 4.947000 33.561001 # 1HT TIP3
156 52 1 0.423800 7.084000 5.009000 33.903999 # 1HT TIP3
157 53 2 -0.847600 -10.761000 -0.389000 8.617000 # 2OT TIP3
158 53 1 0.423800 -11.584000 -0.281000 8.135000 # 1HT TIP3
159 53 1 0.423800 -10.853000 -0.029000 9.500000 # 1HT TIP3
160 54 2 -0.847600 5.840000 9.315000 19.466999 # 2OT TIP3
161 54 1 0.423800 5.045000 9.780000 19.201000 # 1HT TIP3
162 54 1 0.423800 6.315000 9.014000 18.691999 # 1HT TIP3
163 55 2 -0.847600 11.305000 9.452000 18.445000 # 2OT TIP3
164 55 1 0.423800 10.702000 10.185000 18.299000 # 1HT TIP3
165 55 1 0.423800 11.123000 8.753000 17.816000 # 1HT TIP3
166 56 2 -0.847600 12.087000 -2.140000 0.098000 # 2OT TIP3
167 56 1 0.423800 11.874000 -3.074000 0.150000 # 1HT TIP3
168 56 1 0.423800 11.616000 -1.662000 0.781000 # 1HT TIP3
169 57 2 -0.847600 11.663000 2.783000 3.017000 # 2OT TIP3
170 57 1 0.423800 12.596000 2.580000 2.925000 # 1HT TIP3
171 57 1 0.423800 11.557000 3.658000 3.391000 # 1HT TIP3
172 58 2 -0.847600 6.081000 -6.270000 12.279000 # 2OT TIP3
173 58 1 0.423800 6.143000 -5.883000 11.403000 # 1HT TIP3
174 58 1 0.423800 6.627000 -7.056000 12.325000 # 1HT TIP3
175 59 2 -0.847600 10.649000 -9.137000 41.851002 # 2OT TIP3
176 59 1 0.423800 11.429000 -8.925000 42.368999 # 1HT TIP3
177 59 1 0.423800 10.286000 -8.337000 41.469002 # 1HT TIP3
178 60 2 -0.847600 -8.917000 -2.481000 49.862999 # 2OT TIP3
179 60 1 0.423800 -8.351000 -1.761000 49.576000 # 1HT TIP3
180 60 1 0.423800 -8.490000 -3.320000 49.683998 # 1HT TIP3
181 61 2 -0.847600 8.625000 1.079000 30.701000 # 2OT TIP3
182 61 1 0.423800 9.391000 1.648000 30.605000 # 1HT TIP3
183 61 1 0.423800 8.430000 0.654000 29.864000 # 1HT TIP3
184 62 2 -0.847600 -11.282000 -2.974000 36.550999 # 2OT TIP3
185 62 1 0.423800 -12.105000 -2.633000 36.194000 # 1HT TIP3
186 62 1 0.423800 -10.541000 -2.597000 36.076000 # 1HT TIP3
187 63 2 -0.847600 -1.311000 9.875000 42.193001 # 2OT TIP3
188 63 1 0.423800 -1.787000 9.043000 42.234001 # 1HT TIP3
189 63 1 0.423800 -0.675000 9.920000 42.907001 # 1HT TIP3
190 64 2 -0.847600 -7.700000 3.844000 37.681999 # 2OT TIP3
191 64 1 0.423800 -6.982000 3.610000 37.089001 # 1HT TIP3
192 64 1 0.423800 -7.712000 3.243000 38.428001 # 1HT TIP3
193 65 2 -0.847600 2.006000 -8.547000 22.195999 # 2OT TIP3
194 65 1 0.423800 2.583000 -8.246000 22.902000 # 1HT TIP3
195 65 1 0.423800 2.472000 -8.510000 21.360001 # 1HT TIP3
196 66 2 -0.847600 1.486000 13.524000 0.572000 # 2OT TIP3
197 66 1 0.423800 0.551000 13.501000 0.357000 # 1HT TIP3
198 66 1 0.423800 1.967000 12.931000 -0.007000 # 1HT TIP3
199 67 2 -0.847600 2.386000 -1.006000 28.348000 # 2OT TIP3
200 67 1 0.423800 3.186000 -0.501000 28.511999 # 1HT TIP3
201 67 1 0.423800 1.621000 -0.498000 28.617001 # 1HT TIP3
202 68 2 -0.847600 13.503000 -1.239000 20.997000 # 2OT TIP3
203 68 1 0.423800 13.745000 -0.387000 20.628000 # 1HT TIP3
204 68 1 0.423800 13.971000 -1.936000 20.537001 # 1HT TIP3
205 69 2 -0.847600 -13.721000 3.740000 9.269000 # 2OT TIP3
206 69 1 0.423800 -14.340000 3.056000 9.535000 # 1HT TIP3
207 69 1 0.423800 -13.470000 4.263000 10.032000 # 1HT TIP3
208 70 2 -0.847600 1.305000 3.689000 21.905001 # 2OT TIP3
209 70 1 0.423800 2.226000 3.955000 21.934999 # 1HT TIP3
210 70 1 0.423800 1.234000 2.746000 22.056000 # 1HT TIP3
211 71 2 -0.847600 -0.312000 8.181000 38.127998 # 2OT TIP3
212 71 1 0.423800 0.581000 8.255000 38.472000 # 1HT TIP3
213 71 1 0.423800 -0.504000 7.267000 37.919998 # 1HT TIP3
214 72 2 -0.847600 -15.276000 -6.824000 19.162001 # 2OT TIP3
215 72 1 0.423800 -14.628000 -6.147000 19.368000 # 1HT TIP3
216 72 1 0.423800 -14.844000 -7.677000 19.097000 # 1HT TIP3
217 73 2 -0.847600 9.538000 -7.265000 30.597000 # 2OT TIP3
218 73 1 0.423800 9.569000 -8.026000 30.013000 # 1HT TIP3
219 73 1 0.423800 8.766000 -6.734000 30.396999 # 1HT TIP3
220 74 2 -0.847600 -5.240000 -11.138000 27.895000 # 2OT TIP3
221 74 1 0.423800 -4.537000 -11.348000 27.278000 # 1HT TIP3
222 74 1 0.423800 -4.878000 -10.684000 28.657000 # 1HT TIP3
223 75 2 -0.847600 6.663000 -1.740000 47.051998 # 2OT TIP3
224 75 1 0.423800 5.794000 -1.826000 47.450001 # 1HT TIP3
225 75 1 0.423800 6.714000 -0.919000 46.560001 # 1HT TIP3
226 76 2 -0.847600 -5.313000 3.977000 31.992001 # 2OT TIP3
227 76 1 0.423800 -4.613000 3.332000 31.875000 # 1HT TIP3
228 76 1 0.423800 -4.935000 4.838000 32.168999 # 1HT TIP3
229 77 2 -0.847600 -1.160000 -1.785000 8.604000 # 2OT TIP3
230 77 1 0.423800 -1.179000 -0.827000 8.566000 # 1HT TIP3
231 77 1 0.423800 -0.275000 -2.100000 8.418000 # 1HT TIP3
232 78 2 -0.847600 -13.549000 -6.913000 49.307999 # 2OT TIP3
233 78 1 0.423800 -14.414000 -6.937000 48.891998 # 1HT TIP3
234 78 1 0.423800 -13.272000 -7.802000 49.532001 # 1HT TIP3
235 79 2 -0.847600 3.141000 -8.029000 30.513000 # 2OT TIP3
236 79 1 0.423800 4.034000 -7.698000 30.625000 # 1HT TIP3
237 79 1 0.423800 3.146000 -8.987000 30.525999 # 1HT TIP3
238 80 2 -0.847600 -1.760000 -9.312000 0.066000 # 2OT TIP3
239 80 1 0.423800 -1.818000 -10.238000 -0.178000 # 1HT TIP3
240 80 1 0.423800 -0.854000 -9.088000 0.279000 # 1HT TIP3
241 81 2 -0.847600 -5.804000 7.947000 18.941000 # 2OT TIP3
242 81 1 0.423800 -5.610000 7.817000 19.872000 # 1HT TIP3
243 81 1 0.423800 -6.039000 7.111000 18.538000 # 1HT TIP3
244 82 2 -0.847600 6.564000 -16.528000 41.493999 # 2OT TIP3
245 82 1 0.423800 6.193000 -16.188999 40.676998 # 1HT TIP3
246 82 1 0.423800 7.495000 -16.309000 41.543999 # 1HT TIP3
247 83 2 -0.847600 -1.697000 2.448000 42.419998 # 2OT TIP3
248 83 1 0.423800 -0.833000 2.765000 42.689999 # 1HT TIP3
249 83 1 0.423800 -1.628000 1.547000 42.102001 # 1HT TIP3
250 84 2 -0.847600 5.819000 -11.249000 11.553000 # 2OT TIP3
251 84 1 0.423800 6.533000 -11.633000 11.040000 # 1HT TIP3
252 84 1 0.423800 5.311000 -10.651000 11.005000 # 1HT TIP3
253 85 2 -0.847600 -11.712000 0.557000 3.958000 # 2OT TIP3
254 85 1 0.423800 -11.517000 1.438000 3.632000 # 1HT TIP3
255 85 1 0.423800 -12.639000 0.498000 4.196000 # 1HT TIP3
256 86 2 -0.847600 -10.873000 5.356000 20.916000 # 2OT TIP3
257 86 1 0.423800 -11.386000 5.320000 21.726000 # 1HT TIP3
258 86 1 0.423800 -11.157000 4.661000 20.320999 # 1HT TIP3
259 87 2 -0.847600 2.409000 -10.733000 33.911999 # 2OT TIP3
260 87 1 0.423800 3.159000 -11.227000 34.251999 # 1HT TIP3
261 87 1 0.423800 2.628000 -10.356000 33.060001 # 1HT TIP3
262 88 2 -0.847600 4.492000 13.922000 23.900999 # 2OT TIP3
263 88 1 0.423800 5.179000 13.448000 23.427000 # 1HT TIP3
264 88 1 0.423800 3.834000 13.304000 24.221001 # 1HT TIP3
265 89 2 -0.847600 0.022000 -8.454000 30.747999 # 2OT TIP3
266 89 1 0.423800 -0.437000 -7.642000 30.976000 # 1HT TIP3
267 89 1 0.423800 0.949000 -8.270000 30.596001 # 1HT TIP3
268 90 2 -0.847600 -1.319000 15.976000 0.565000 # 2OT TIP3
269 90 1 0.423800 -0.492000 16.409000 0.788000 # 1HT TIP3
270 90 1 0.423800 -1.501000 16.087000 -0.369000 # 1HT TIP3
271 91 2 -0.847600 6.284000 -15.260000 21.921000 # 2OT TIP3
272 91 1 0.423800 5.781000 -14.716000 22.531000 # 1HT TIP3
273 91 1 0.423800 5.800000 -15.360000 21.101000 # 1HT TIP3
274 92 2 -0.847600 7.069000 2.683000 0.500000 # 2OT TIP3
275 92 1 0.423800 7.893000 2.881000 0.950000 # 1HT TIP3
276 92 1 0.423800 7.162000 1.875000 -0.005000 # 1HT TIP3
277 93 2 -0.847600 8.439000 -2.165000 15.931000 # 2OT TIP3
278 93 1 0.423800 8.663000 -3.096000 15.869000 # 1HT TIP3
279 93 1 0.423800 7.670000 -1.979000 15.391000 # 1HT TIP3
280 94 2 -0.847600 -2.835000 7.052000 6.997000 # 2OT TIP3
281 94 1 0.423800 -2.914000 6.462000 6.244000 # 1HT TIP3
282 94 1 0.423800 -2.881000 7.962000 6.701000 # 1HT TIP3
283 95 2 -0.847600 -6.695000 14.592000 22.096001 # 2OT TIP3
284 95 1 0.423800 -6.429000 13.706000 22.351999 # 1HT TIP3
285 95 1 0.423800 -7.409000 14.892000 22.660000 # 1HT TIP3
286 96 2 -0.847600 -8.269000 -2.561000 42.855000 # 2OT TIP3
287 96 1 0.423800 -8.882000 -3.148000 43.303001 # 1HT TIP3
288 96 1 0.423800 -8.754000 -1.865000 42.410000 # 1HT TIP3
289 97 2 -0.847600 6.510000 -7.254000 34.648998 # 2OT TIP3
290 97 1 0.423800 5.827000 -7.800000 34.254002 # 1HT TIP3
291 97 1 0.423800 7.275000 -7.224000 34.073002 # 1HT TIP3
292 98 2 -0.847600 1.185000 17.233000 8.006000 # 2OT TIP3
293 98 1 0.423800 1.050000 16.393999 8.453000 # 1HT TIP3
294 98 1 0.423800 0.637000 17.907000 8.409000 # 1HT TIP3
295 99 2 -0.847600 -12.262000 2.553000 8.128000 # 2OT TIP3
296 99 1 0.423800 -12.939000 2.068000 7.650000 # 1HT TIP3
297 99 1 0.423800 -11.663000 1.939000 8.553000 # 1HT TIP3
298 100 2 -0.847600 4.802000 16.403999 22.379000 # 2OT TIP3
299 100 1 0.423800 5.454000 16.723000 23.006001 # 1HT TIP3
300 100 1 0.423800 5.084000 15.562000 22.018999 # 1HT TIP3
301 101 2 -0.847600 3.866000 10.892000 7.848000 # 2OT TIP3
302 101 1 0.423800 3.252000 11.129000 8.546000 # 1HT TIP3
303 101 1 0.423800 3.728000 11.458000 7.088000 # 1HT TIP3
304 102 2 -0.847600 2.462000 -5.251000 8.958000 # 2OT TIP3
305 102 1 0.423800 1.731000 -5.057000 9.548000 # 1HT TIP3
306 102 1 0.423800 2.262000 -6.030000 8.438000 # 1HT TIP3
307 103 2 -0.847600 -0.802000 5.550000 10.774000 # 2OT TIP3
308 103 1 0.423800 -0.122000 4.906000 10.567000 # 1HT TIP3
309 103 1 0.423800 -0.395000 6.368000 11.064000 # 1HT TIP3
310 104 2 -0.847600 -2.957000 12.625000 8.894000 # 2OT TIP3
311 104 1 0.423800 -3.772000 12.919000 9.307000 # 1HT TIP3
312 104 1 0.423800 -2.629000 13.306000 8.305000 # 1HT TIP3
313 105 2 -0.847600 9.592000 -4.536000 43.044998 # 2OT TIP3
314 105 1 0.423800 9.025000 -3.799000 43.283001 # 1HT TIP3
315 105 1 0.423800 10.495000 -4.232000 42.948002 # 1HT TIP3
316 106 2 -0.847600 10.324000 -10.721000 36.335999 # 2OT TIP3
317 106 1 0.423800 10.346000 -10.016000 36.986000 # 1HT TIP3
318 106 1 0.423800 11.062000 -11.315000 36.477001 # 1HT TIP3
319 107 2 -0.847600 11.802000 4.853000 47.866001 # 2OT TIP3
320 107 1 0.423800 12.061000 4.403000 48.673000 # 1HT TIP3
321 107 1 0.423800 12.148000 4.383000 47.106998 # 1HT TIP3
322 108 2 -0.847600 3.154000 -1.307000 48.632000 # 2OT TIP3
323 108 1 0.423800 3.631000 -2.094000 48.360001 # 1HT TIP3
324 108 1 0.423800 2.821000 -1.422000 49.522999 # 1HT TIP3
325 109 2 -0.847600 -0.232000 -2.544000 42.738998 # 2OT TIP3
326 109 1 0.423800 0.655000 -2.875000 42.896000 # 1HT TIP3
327 109 1 0.423800 -0.191000 -1.730000 42.237000 # 1HT TIP3
328 110 2 -0.847600 2.683000 -12.242000 31.427000 # 2OT TIP3
329 110 1 0.423800 3.379000 -12.846000 31.694000 # 1HT TIP3
330 110 1 0.423800 3.063000 -11.401000 31.173000 # 1HT TIP3
331 111 2 -0.847600 0.012000 -6.307000 38.250999 # 2OT TIP3
332 111 1 0.423800 -0.291000 -6.319000 39.161999 # 1HT TIP3
333 111 1 0.423800 0.884000 -6.699000 38.194000 # 1HT TIP3
334 112 2 -0.847600 7.098000 8.999000 45.535000 # 2OT TIP3
335 112 1 0.423800 8.052000 9.078000 45.464001 # 1HT TIP3
336 112 1 0.423800 6.677000 9.694000 45.028000 # 1HT TIP3
337 113 2 -0.847600 -0.469000 -13.428000 25.231001 # 2OT TIP3
338 113 1 0.423800 -0.972000 -13.844000 24.527000 # 1HT TIP3
339 113 1 0.423800 0.462000 -13.627000 25.122999 # 1HT TIP3
340 114 2 -0.847600 4.871000 -9.967000 40.181000 # 2OT TIP3
341 114 1 0.423800 4.731000 -9.891000 41.126999 # 1HT TIP3
342 114 1 0.423800 4.451000 -9.233000 39.731998 # 1HT TIP3
343 115 2 -0.847600 4.935000 -10.457000 22.938999 # 2OT TIP3
344 115 1 0.423800 4.667000 -9.638000 22.518000 # 1HT TIP3
345 115 1 0.423800 5.018000 -11.148000 22.281000 # 1HT TIP3
346 116 2 -0.847600 -5.997000 -7.153000 1.823000 # 2OT TIP3
347 116 1 0.423800 -6.071000 -7.912000 1.240000 # 1HT TIP3
348 116 1 0.423800 -5.365000 -6.529000 1.464000 # 1HT TIP3
349 117 2 -0.847600 -6.288000 -11.865000 7.933000 # 2OT TIP3
350 117 1 0.423800 -5.499000 -12.189000 7.492000 # 1HT TIP3
351 117 1 0.423800 -6.046000 -11.437000 8.755000 # 1HT TIP3
352 118 2 -0.847600 -13.057000 -0.835000 11.145000 # 2OT TIP3
353 118 1 0.423800 -13.550000 -0.109000 10.755000 # 1HT TIP3
354 118 1 0.423800 -12.434000 -1.182000 10.506000 # 1HT TIP3
355 119 2 -0.847600 1.788000 5.958000 18.294001 # 2OT TIP3
356 119 1 0.423800 2.172000 5.790000 19.158001 # 1HT TIP3
357 119 1 0.423800 1.754000 5.143000 17.791000 # 1HT TIP3
358 120 2 -0.847600 -1.682000 -1.577000 30.497000 # 2OT TIP3
359 120 1 0.423800 -1.162000 -2.253000 30.937000 # 1HT TIP3
360 120 1 0.423800 -2.611000 -1.703000 30.695000 # 1HT TIP3
361 121 2 -0.847600 -13.990000 -1.036000 2.775000 # 2OT TIP3
362 121 1 0.423800 -14.034000 -1.136000 3.729000 # 1HT TIP3
363 121 1 0.423800 -13.089000 -0.847000 2.510000 # 1HT TIP3
364 122 2 -0.847600 3.537000 -1.267000 20.507999 # 2OT TIP3
365 122 1 0.423800 3.918000 -1.342000 21.385000 # 1HT TIP3
366 122 1 0.423800 4.081000 -0.695000 19.966000 # 1HT TIP3
367 123 2 -0.847600 -10.508000 -6.902000 33.685001 # 2OT TIP3
368 123 1 0.423800 -9.973000 -6.546000 34.397999 # 1HT TIP3
369 123 1 0.423800 -10.956000 -6.188000 33.229000 # 1HT TIP3
370 124 2 -0.847600 4.002000 8.008000 26.805000 # 2OT TIP3
371 124 1 0.423800 3.617000 8.867000 26.989000 # 1HT TIP3
372 124 1 0.423800 4.190000 7.555000 27.628000 # 1HT TIP3
373 125 2 -0.847600 -12.146000 -7.747000 30.768000 # 2OT TIP3
374 125 1 0.423800 -11.779000 -7.165000 31.438000 # 1HT TIP3
375 125 1 0.423800 -12.696000 -7.243000 30.167999 # 1HT TIP3
376 126 2 -0.847600 13.837000 7.745000 49.259998 # 2OT TIP3
377 126 1 0.423800 13.256000 7.636000 48.504002 # 1HT TIP3
378 126 1 0.423800 14.746000 7.807000 48.964001 # 1HT TIP3
379 127 2 -0.847600 -16.121000 -6.823000 15.752000 # 2OT TIP3
380 127 1 0.423800 -15.237000 -7.192000 15.803000 # 1HT TIP3
381 127 1 0.423800 -16.108999 -5.911000 16.047001 # 1HT TIP3
382 128 2 -0.847600 12.556000 -4.738000 6.884000 # 2OT TIP3
383 128 1 0.423800 11.669000 -4.492000 7.155000 # 1HT TIP3
384 128 1 0.423800 12.831000 -5.527000 7.352000 # 1HT TIP3
385 129 2 -0.847600 0.754000 17.358999 14.371000 # 2OT TIP3
386 129 1 0.423800 0.741000 18.114000 14.964000 # 1HT TIP3
387 129 1 0.423800 1.021000 16.575001 14.852000 # 1HT TIP3
388 130 2 -0.847600 2.544000 -7.447000 6.747000 # 2OT TIP3
389 130 1 0.423800 3.001000 -7.587000 5.914000 # 1HT TIP3
390 130 1 0.423800 2.726000 -8.175000 7.342000 # 1HT TIP3
391 131 2 -0.847600 -7.925000 -15.530000 9.153000 # 2OT TIP3
392 131 1 0.423800 -7.514000 -16.107000 9.801000 # 1HT TIP3
393 131 1 0.423800 -8.594000 -16.011999 8.667000 # 1HT TIP3
394 132 2 -0.847600 13.694000 -7.226000 9.970000 # 2OT TIP3
395 132 1 0.423800 14.560000 -7.577000 10.186000 # 1HT TIP3
396 132 1 0.423800 13.149000 -7.918000 9.593000 # 1HT TIP3
397 133 2 -0.847600 1.780000 17.079000 39.316002 # 2OT TIP3
398 133 1 0.423800 0.961000 17.434999 38.966999 # 1HT TIP3
399 133 1 0.423800 1.667000 16.848000 40.238998 # 1HT TIP3
400 134 2 -0.847600 -8.593000 5.860000 15.270000 # 2OT TIP3
401 134 1 0.423800 -7.739000 5.585000 14.931000 # 1HT TIP3
402 134 1 0.423800 -8.579000 6.799000 15.462000 # 1HT TIP3
403 135 2 -0.847600 -13.251000 -2.600000 29.816999 # 2OT TIP3
404 135 1 0.423800 -13.913000 -3.165000 29.412001 # 1HT TIP3
405 135 1 0.423800 -12.561000 -2.404000 29.181999 # 1HT TIP3
406 136 2 -0.847600 5.306000 -7.234000 21.590000 # 2OT TIP3
407 136 1 0.423800 5.928000 -7.946000 21.757999 # 1HT TIP3
408 136 1 0.423800 5.783000 -6.428000 21.388000 # 1HT TIP3
409 137 2 -0.847600 3.332000 13.948000 39.660000 # 2OT TIP3
410 137 1 0.423800 2.663000 13.261000 39.688000 # 1HT TIP3
411 137 1 0.423800 3.167000 14.590000 40.351002 # 1HT TIP3
412 138 2 -0.847600 16.480000 1.699000 39.361000 # 2OT TIP3
413 138 1 0.423800 15.695000 1.389000 39.818001 # 1HT TIP3
414 138 1 0.423800 16.837000 2.465000 39.812000 # 1HT TIP3
415 139 2 -0.847600 11.906000 -0.340000 30.982000 # 2OT TIP3
416 139 1 0.423800 11.144000 0.139000 30.648001 # 1HT TIP3
417 139 1 0.423800 11.617000 -1.123000 31.451000 # 1HT TIP3
418 140 2 -0.847600 -3.438000 14.332000 33.808998 # 2OT TIP3
419 140 1 0.423800 -4.274000 13.863000 33.855999 # 1HT TIP3
420 140 1 0.423800 -3.480000 15.125000 34.344002 # 1HT TIP3
421 141 2 -0.847600 -12.756000 4.157000 37.709999 # 2OT TIP3
422 141 1 0.423800 -12.803000 3.371000 38.257999 # 1HT TIP3
423 141 1 0.423800 -13.573000 4.652000 37.783001 # 1HT TIP3
424 142 2 -0.847600 7.289000 11.608000 17.697001 # 2OT TIP3
425 142 1 0.423800 8.140000 12.051000 17.702000 # 1HT TIP3
426 142 1 0.423800 7.418000 10.659000 17.733000 # 1HT TIP3
427 143 2 -0.847600 -3.330000 -7.760000 0.298000 # 2OT TIP3
428 143 1 0.423800 -3.965000 -8.317000 0.754000 # 1HT TIP3
429 143 1 0.423800 -2.646000 -7.482000 0.908000 # 1HT TIP3
430 144 2 -0.847600 10.466000 -5.472000 14.815000 # 2OT TIP3
431 144 1 0.423800 9.525000 -5.559000 14.980000 # 1HT TIP3
432 144 1 0.423800 10.703000 -5.964000 14.028000 # 1HT TIP3
433 145 2 -0.847600 4.148000 1.473000 9.022000 # 2OT TIP3
434 145 1 0.423800 3.743000 0.603000 9.005000 # 1HT TIP3
435 145 1 0.423800 5.071000 1.397000 9.266000 # 1HT TIP3
436 146 2 -0.847600 7.394000 7.298000 37.761002 # 2OT TIP3
437 146 1 0.423800 8.001000 6.815000 37.195999 # 1HT TIP3
438 146 1 0.423800 7.604000 7.131000 38.681000 # 1HT TIP3
439 147 2 -0.847600 -6.667000 2.642000 9.408000 # 2OT TIP3
440 147 1 0.423800 -7.436000 2.159000 9.720000 # 1HT TIP3
441 147 1 0.423800 -6.718000 3.554000 9.697000 # 1HT TIP3
442 148 2 -0.847600 -9.345000 8.018000 47.884998 # 2OT TIP3
443 148 1 0.423800 -10.056000 8.623000 48.105999 # 1HT TIP3
444 148 1 0.423800 -8.506000 8.480000 47.910999 # 1HT TIP3
445 149 2 -0.847600 12.950000 2.014000 31.299000 # 2OT TIP3
446 149 1 0.423800 13.144000 1.255000 31.855000 # 1HT TIP3
447 149 1 0.423800 12.003000 2.093000 31.180000 # 1HT TIP3
448 150 2 -0.847600 13.150000 -4.397000 21.771999 # 2OT TIP3
449 150 1 0.423800 12.398000 -4.146000 22.312000 # 1HT TIP3
450 150 1 0.423800 12.846000 -4.787000 20.952000 # 1HT TIP3
451 151 2 -0.847600 3.160000 -11.255000 11.584000 # 2OT TIP3
452 151 1 0.423800 3.116000 -10.487000 11.010000 # 1HT TIP3
453 151 1 0.423800 3.640000 -11.034000 12.383000 # 1HT TIP3
454 152 2 -0.847600 -15.119000 2.118000 3.623000 # 2OT TIP3
455 152 1 0.423800 -14.916000 3.010000 3.912000 # 1HT TIP3
456 152 1 0.423800 -14.311000 1.664000 3.380000 # 1HT TIP3
457 153 2 -0.847600 11.380000 3.858000 20.233999 # 2OT TIP3
458 153 1 0.423800 12.226000 3.506000 19.948999 # 1HT TIP3
459 153 1 0.423800 11.468000 4.790000 20.436001 # 1HT TIP3
460 154 2 -0.847600 -2.606000 -5.973000 42.109001 # 2OT TIP3
461 154 1 0.423800 -1.992000 -6.710000 42.084000 # 1HT TIP3
462 154 1 0.423800 -3.247000 -6.109000 42.807999 # 1HT TIP3
463 155 2 -0.847600 10.675000 -13.249000 24.096001 # 2OT TIP3
464 155 1 0.423800 11.518000 -13.637000 23.853001 # 1HT TIP3
465 155 1 0.423800 9.961000 -13.818000 23.806000 # 1HT TIP3
466 156 2 -0.847600 12.472000 6.906000 41.112000 # 2OT TIP3
467 156 1 0.423800 12.497000 7.793000 41.476002 # 1HT TIP3
468 156 1 0.423800 13.362000 6.608000 40.921001 # 1HT TIP3
469 157 2 -0.847600 4.507000 -12.282000 4.691000 # 2OT TIP3
470 157 1 0.423800 4.417000 -13.151000 4.294000 # 1HT TIP3
471 157 1 0.423800 3.644000 -11.880000 4.790000 # 1HT TIP3
472 158 2 -0.847600 -5.320000 5.771000 37.953999 # 2OT TIP3
473 158 1 0.423800 -4.529000 5.533000 37.464001 # 1HT TIP3
474 158 1 0.423800 -5.394000 6.724000 38.006001 # 1HT TIP3
475 159 2 -0.847600 8.841000 8.881000 18.333000 # 2OT TIP3
476 159 1 0.423800 8.750000 9.508000 19.054001 # 1HT TIP3
477 159 1 0.423800 9.213000 8.062000 18.662001 # 1HT TIP3
478 160 2 -0.847600 4.507000 8.405000 4.067000 # 2OT TIP3
479 160 1 0.423800 3.666000 8.801000 4.306000 # 1HT TIP3
480 160 1 0.423800 5.142000 9.093000 3.863000 # 1HT TIP3
481 161 2 -0.847600 5.367000 3.176000 33.770000 # 2OT TIP3
482 161 1 0.423800 6.285000 2.924000 33.894001 # 1HT TIP3
483 161 1 0.423800 4.829000 2.392000 33.652000 # 1HT TIP3
484 162 2 -0.847600 -2.478000 -11.585000 48.743000 # 2OT TIP3
485 162 1 0.423800 -2.706000 -12.462000 48.426998 # 1HT TIP3
486 162 1 0.423800 -1.528000 -11.467000 48.714001 # 1HT TIP3
487 163 2 -0.847600 -9.950000 -6.572000 5.050000 # 2OT TIP3
488 163 1 0.423800 -9.114000 -6.526000 5.518000 # 1HT TIP3
489 163 1 0.423800 -9.802000 -6.862000 4.149000 # 1HT TIP3
490 164 2 -0.847600 3.232000 12.268000 37.707001 # 2OT TIP3
491 164 1 0.423800 3.684000 11.461000 37.452999 # 1HT TIP3
492 164 1 0.423800 3.705000 13.027000 37.362999 # 1HT TIP3
493 165 2 -0.847600 10.104000 12.588000 34.132000 # 2OT TIP3
494 165 1 0.423800 10.084000 13.524000 34.341999 # 1HT TIP3
495 165 1 0.423800 11.005000 12.315000 33.952000 # 1HT TIP3
496 166 2 -0.847600 2.177000 3.036000 30.025000 # 2OT TIP3
497 166 1 0.423800 3.006000 3.481000 29.834999 # 1HT TIP3
498 166 1 0.423800 1.468000 3.446000 29.528000 # 1HT TIP3
499 167 2 -0.847600 -15.914000 5.960000 45.441002 # 2OT TIP3
500 167 1 0.423800 -16.802999 6.036000 45.796001 # 1HT TIP3
501 167 1 0.423800 -15.568000 6.832000 45.245998 # 1HT TIP3