LAMMPS data file. CGCMM style. atom_style full generated by VMD/TopoTools v1.7 on Sun May 10 12:51:08 AEST 2020
 8418 atoms
 3452 bonds
 1726 angles
 0 dihedrals
 0 impropers
 8 atom types
 1 bond types
 1 angle types
 0 dihedral types
 0 improper types
  -1.4190 36.8690  xlo xhi
  -0.6100 36.2230  ylo yhi
  -8.8000 49.6980  zlo zhi

# Pair Coeffs
#
# 1  1HT
# 2  2OT
# 3  3CA
# 4  4CA
# 5  5CA
# 6  6CA
# 7  7CA
# 8  8CA

# Bond Coeffs
#
# 1  

# Angle Coeffs
#
# 1  unknown

 Masses

 1 1.008000 # 1HT
 2 15.999400 # 2OT
 3 12.010700 # 3CA
 4 12.010700 # 4CA
 5 12.010700 # 5CA
 6 12.010700 # 6CA
 7 12.010700 # 7CA
 8 12.010700 # 8CA

 Atoms # full

1 1 2 -0.847600 13.926000 21.080000 4.329000 # 2OT SPE
2 2 1 0.423800 13.522000 21.370001 3.508000 # 1HT SPE
3 3 1 0.423800 14.280000 20.195000 4.217000 # 1HT SPE
4 4 2 -0.847600 13.592000 26.016001 4.312000 # 2OT SPE
5 5 1 0.423800 14.383000 25.983000 3.770000 # 1HT SPE
6 6 1 0.423800 13.223000 26.902000 4.287000 # 1HT SPE
7 7 2 -0.847600 3.857000 16.122999 18.403000 # 2OT SPE
8 8 1 0.423800 3.350000 16.664000 17.792999 # 1HT SPE
9 9 1 0.423800 3.258000 15.597000 18.938000 # 1HT SPE
10 10 2 -0.847600 19.429001 31.690001 6.486000 # 2OT SPE
11 11 1 0.423800 19.761000 31.945000 5.621000 # 1HT SPE
12 12 1 0.423800 20.134001 31.766001 7.134000 # 1HT SPE
13 13 2 -0.847600 13.653000 30.143999 13.546000 # 2OT SPE
14 14 1 0.423800 12.909000 30.726999 13.712000 # 1HT SPE
15 15 1 0.423800 14.431000 30.667000 13.342000 # 1HT SPE
16 16 2 -0.847600 10.573000 15.716000 2.544000 # 2OT SPE
17 17 1 0.423800 10.792000 15.711000 3.479000 # 1HT SPE
18 18 1 0.423800 11.379000 15.679000 2.025000 # 1HT SPE
19 19 2 -0.847600 21.153000 27.747999 17.452999 # 2OT SPE
20 20 1 0.423800 20.625999 28.429001 17.028000 # 1HT SPE
21 21 1 0.423800 20.730000 26.893999 17.334000 # 1HT SPE
22 22 2 -0.847600 14.256000 3.260000 16.208000 # 2OT SPE
23 23 1 0.423800 14.686000 2.754000 16.900999 # 1HT SPE
24 24 1 0.423800 13.872000 4.056000 16.584000 # 1HT SPE
25 25 2 -0.847600 4.115000 20.900999 18.235001 # 2OT SPE
26 26 1 0.423800 4.690000 20.815001 17.471001 # 1HT SPE
27 27 1 0.423800 4.301000 21.728001 18.684999 # 1HT SPE
28 28 2 -0.847600 13.617000 32.945999 23.524000 # 2OT SPE
29 29 1 0.423800 14.322000 32.646999 22.944000 # 1HT SPE
30 30 1 0.423800 13.564000 33.903999 23.497000 # 1HT SPE
31 31 2 -0.847600 4.393000 20.737000 22.747999 # 2OT SPE
32 32 1 0.423800 4.302000 19.916000 23.237000 # 1HT SPE
33 33 1 0.423800 4.014000 21.457001 23.257000 # 1HT SPE
34 34 2 -0.847600 16.421000 14.742000 8.527000 # 2OT SPE
35 35 1 0.423800 15.481000 14.842000 8.695000 # 1HT SPE
36 36 1 0.423800 16.636999 13.809000 8.466000 # 1HT SPE
37 37 2 -0.847600 21.301001 29.629000 13.917000 # 2OT SPE
38 38 1 0.423800 20.653000 30.337000 13.900000 # 1HT SPE
39 39 1 0.423800 22.039000 29.856001 13.347000 # 1HT SPE
40 40 2 -0.847600 28.419001 6.288000 19.645000 # 2OT SPE
41 41 1 0.423800 27.742001 6.667000 19.079000 # 1HT SPE
42 42 1 0.423800 28.931999 6.993000 20.046000 # 1HT SPE
43 43 2 -0.847600 14.004000 30.975000 6.839000 # 2OT SPE
44 44 1 0.423800 13.198000 30.669001 6.416000 # 1HT SPE
45 45 1 0.423800 14.650000 30.264999 6.850000 # 1HT SPE
46 46 2 -0.847600 26.061001 24.846001 17.924999 # 2OT SPE
47 47 1 0.423800 26.260000 25.764999 18.124001 # 1HT SPE
48 48 1 0.423800 26.844000 24.311001 18.070999 # 1HT SPE
49 49 2 -0.847600 29.422001 5.022000 24.663000 # 2OT SPE
50 50 1 0.423800 29.201000 4.352000 24.011000 # 1HT SPE
51 51 1 0.423800 30.032000 4.653000 25.306000 # 1HT SPE
52 52 2 -0.847600 6.510000 32.296001 6.945000 # 2OT SPE
53 53 1 0.423800 7.095000 33.005001 6.668000 # 1HT SPE
54 54 1 0.423800 6.119000 32.516998 7.794000 # 1HT SPE
55 55 2 -0.847600 16.923000 15.781000 13.811000 # 2OT SPE
56 56 1 0.423800 15.971000 15.757000 13.686000 # 1HT SPE
57 57 1 0.423800 17.356001 15.850000 12.957000 # 1HT SPE
58 58 2 -0.847600 4.546000 27.886999 28.209999 # 2OT SPE
59 59 1 0.423800 4.277000 28.457001 28.934999 # 1HT SPE
60 60 1 0.423800 5.033000 28.400999 27.562000 # 1HT SPE
61 61 2 -0.847600 17.933001 8.416000 11.818000 # 2OT SPE
62 62 1 0.423800 17.618000 9.314000 11.693000 # 1HT SPE
63 63 1 0.423800 18.868000 8.372000 11.607000 # 1HT SPE
64 64 2 -0.847600 1.470000 7.922000 37.089001 # 2OT SPE
65 65 1 0.423800 0.624000 7.718000 36.682999 # 1HT SPE
66 66 1 0.423800 1.881000 7.111000 37.396999 # 1HT SPE
67 67 2 -0.847600 25.742001 18.511000 3.440000 # 2OT SPE
68 68 1 0.423800 25.629999 17.573000 3.612000 # 1HT SPE
69 69 1 0.423800 24.959000 18.985001 3.728000 # 1HT SPE
70 70 2 -0.847600 5.877000 22.709999 29.486000 # 2OT SPE
71 71 1 0.423800 5.761000 23.622999 29.760000 # 1HT SPE
72 72 1 0.423800 5.159000 22.177000 29.834999 # 1HT SPE
73 73 2 -0.847600 33.373001 12.119000 33.291000 # 2OT SPE
74 74 1 0.423800 33.577999 12.983000 33.655998 # 1HT SPE
75 75 1 0.423800 34.053001 11.492000 33.549999 # 1HT SPE
76 76 2 -0.847600 28.323999 6.564000 32.286999 # 2OT SPE
77 77 1 0.423800 29.096001 6.856000 31.796000 # 1HT SPE
78 78 1 0.423800 27.865999 7.327000 32.646999 # 1HT SPE
79 79 2 -0.847600 8.071000 22.521999 9.210000 # 2OT SPE
80 80 1 0.423800 7.523000 21.764000 9.429000 # 1HT SPE
81 81 1 0.423800 7.562000 23.146000 8.689000 # 1HT SPE
82 82 2 -0.847600 29.280001 31.474001 24.589001 # 2OT SPE
83 83 1 0.423800 29.691000 32.103001 25.187000 # 1HT SPE
84 84 1 0.423800 28.433001 31.198999 24.947001 # 1HT SPE
85 85 2 -0.847600 35.000000 1.263000 9.224000 # 2OT SPE
86 86 1 0.423800 34.250999 1.401000 8.640000 # 1HT SPE
87 87 1 0.423800 34.686001 1.139000 10.123000 # 1HT SPE
88 88 2 -0.847600 6.049000 19.084000 9.983000 # 2OT SPE
89 89 1 0.423800 6.904000 19.517000 9.928000 # 1HT SPE
90 90 1 0.423800 5.364000 19.743000 10.118000 # 1HT SPE
91 91 2 -0.847600 14.865000 7.261000 13.420000 # 2OT SPE
92 92 1 0.423800 15.395000 6.605000 13.878000 # 1HT SPE
93 93 1 0.423800 13.975000 7.261000 13.778000 # 1HT SPE
94 94 2 -0.847600 4.054000 13.513000 26.655001 # 2OT SPE
95 95 1 0.423800 3.272000 13.001000 26.874001 # 1HT SPE
96 96 1 0.423800 4.839000 12.999000 26.858999 # 1HT SPE
97 97 2 -0.847600 12.491000 4.072000 8.927000 # 2OT SPE
98 98 1 0.423800 13.199000 4.255000 8.305000 # 1HT SPE
99 99 1 0.423800 12.055000 4.893000 9.166000 # 1HT SPE
100 100 2 -0.847600 12.140000 31.858000 25.450001 # 2OT SPE
101 101 1 0.423800 12.117000 31.275999 26.212999 # 1HT SPE
102 102 1 0.423800 11.338000 31.740999 24.934000 # 1HT SPE
103 103 2 -0.847600 30.212999 29.910999 19.149000 # 2OT SPE
104 104 1 0.423800 30.641001 29.334999 18.510000 # 1HT SPE
105 105 1 0.423800 30.761000 30.683001 19.301001 # 1HT SPE
106 106 2 -0.847600 17.636999 29.677999 24.712999 # 2OT SPE
107 107 1 0.423800 17.283001 28.927000 24.231001 # 1HT SPE
108 108 1 0.423800 16.990000 29.980000 25.355000 # 1HT SPE
109 109 2 -0.847600 18.760000 5.574000 3.505000 # 2OT SPE
110 110 1 0.423800 19.266001 5.447000 4.310000 # 1HT SPE
111 111 1 0.423800 19.252001 5.226000 2.758000 # 1HT SPE
112 112 2 -0.847600 28.580000 2.031000 25.464001 # 2OT SPE
113 113 1 0.423800 27.805000 2.598000 25.474001 # 1HT SPE
114 114 1 0.423800 29.358999 2.559000 25.274000 # 1HT SPE
115 115 2 -0.847600 3.824000 22.226999 37.096001 # 2OT SPE
116 116 1 0.423800 3.922000 21.351999 36.715000 # 1HT SPE
117 117 1 0.423800 2.967000 22.296000 37.522999 # 1HT SPE
118 118 2 -0.847600 32.755001 22.881001 17.733000 # 2OT SPE
119 119 1 0.423800 31.969999 23.427000 17.818001 # 1HT SPE
120 120 1 0.423800 33.478001 23.412001 17.389999 # 1HT SPE
121 121 2 -0.847600 26.231001 26.478001 35.955002 # 2OT SPE
122 122 1 0.423800 26.889999 25.782000 36.000999 # 1HT SPE
123 123 1 0.423800 25.457001 26.157000 35.487000 # 1HT SPE
124 124 2 -0.847600 19.046000 5.677000 16.565001 # 2OT SPE
125 125 1 0.423800 19.274000 6.541000 16.212999 # 1HT SPE
126 126 1 0.423800 18.105000 5.646000 16.750999 # 1HT SPE
127 127 2 -0.847600 5.941000 12.305000 6.828000 # 2OT SPE
128 128 1 0.423800 6.361000 12.285000 5.965000 # 1HT SPE
129 129 1 0.423800 5.446000 13.122000 6.924000 # 1HT SPE
130 130 2 -0.847600 34.158001 24.358999 8.839000 # 2OT SPE
131 131 1 0.423800 33.880001 25.225000 9.145000 # 1HT SPE
132 132 1 0.423800 33.433998 23.737000 8.936000 # 1HT SPE
133 133 2 -0.847600 21.893000 24.299999 26.162001 # 2OT SPE
134 134 1 0.423800 22.608000 23.850000 26.617001 # 1HT SPE
135 135 1 0.423800 22.237000 25.073999 25.711000 # 1HT SPE
136 136 2 -0.847600 32.479000 12.850000 8.237000 # 2OT SPE
137 137 1 0.423800 31.671000 13.068000 7.767000 # 1HT SPE
138 138 1 0.423800 33.212002 12.820000 7.617000 # 1HT SPE
139 139 2 -0.847600 4.677000 25.443001 14.048000 # 2OT SPE
140 140 1 0.423800 5.608000 25.464001 14.283000 # 1HT SPE
141 141 1 0.423800 4.292000 26.311001 14.188000 # 1HT SPE
142 142 2 -0.847600 15.432000 24.021000 36.139000 # 2OT SPE
143 143 1 0.423800 14.892000 23.235001 36.029999 # 1HT SPE
144 144 1 0.423800 16.292000 23.877001 35.737000 # 1HT SPE
145 145 2 -0.847600 31.392000 7.593000 35.908001 # 2OT SPE
146 146 1 0.423800 31.035000 6.705000 35.835999 # 1HT SPE
147 147 1 0.423800 31.313999 8.039000 35.062000 # 1HT SPE
148 148 2 -0.847600 19.724001 18.556000 31.056999 # 2OT SPE
149 149 1 0.423800 20.349001 18.646000 31.781000 # 1HT SPE
150 150 1 0.423800 19.504000 19.424999 30.714001 # 1HT SPE
151 151 2 -0.847600 23.601000 28.768999 32.806999 # 2OT SPE
152 152 1 0.423800 24.466999 29.184000 32.841999 # 1HT SPE
153 153 1 0.423800 22.940001 29.426001 32.576000 # 1HT SPE
154 154 2 -0.847600 1.468000 25.080999 23.222000 # 2OT SPE
155 155 1 0.423800 0.626000 25.204000 22.775000 # 1HT SPE
156 156 1 0.423800 1.374000 24.413000 23.903999 # 1HT SPE
157 157 2 -0.847600 6.899000 29.382999 22.690001 # 2OT SPE
158 158 1 0.423800 6.425000 28.655001 23.099001 # 1HT SPE
159 159 1 0.423800 6.849000 29.302000 21.735001 # 1HT SPE
160 160 2 -0.847600 24.721001 3.294000 15.761000 # 2OT SPE
161 161 1 0.423800 24.445000 2.375000 15.741000 # 1HT SPE
162 162 1 0.423800 25.606001 3.371000 15.397000 # 1HT SPE
163 163 2 -0.847600 10.365000 4.910000 30.688000 # 2OT SPE
164 164 1 0.423800 9.558000 5.419000 30.792000 # 1HT SPE
165 165 1 0.423800 10.285000 4.336000 29.923000 # 1HT SPE
166 166 2 -0.847600 4.838000 3.638000 34.048000 # 2OT SPE
167 167 1 0.423800 5.285000 4.475000 33.901001 # 1HT SPE
168 168 1 0.423800 3.892000 3.758000 33.937000 # 1HT SPE
169 169 2 -0.847600 13.122000 19.361000 8.097000 # 2OT SPE
170 170 1 0.423800 13.857000 19.923000 8.354000 # 1HT SPE
171 171 1 0.423800 13.453000 18.499001 7.836000 # 1HT SPE
172 172 2 -0.847600 20.488001 30.563000 16.555000 # 2OT SPE
173 173 1 0.423800 19.608999 30.524000 16.940001 # 1HT SPE
174 174 1 0.423800 20.653999 31.450001 16.226999 # 1HT SPE
175 175 2 -0.847600 26.297001 3.066000 8.102000 # 2OT SPE
176 176 1 0.423800 26.853001 3.847000 8.064000 # 1HT SPE
177 177 1 0.423800 25.400000 3.299000 7.853000 # 1HT SPE
178 178 2 -0.847600 13.732000 0.917000 28.542000 # 2OT SPE
179 179 1 0.423800 14.316000 1.398000 29.134001 # 1HT SPE
180 180 1 0.423800 14.020000 0.003000 28.481001 # 1HT SPE
181 181 2 -0.847600 29.938000 30.392000 3.356000 # 2OT SPE
182 182 1 0.423800 30.433001 31.215000 3.333000 # 1HT SPE
183 183 1 0.423800 30.510000 29.667999 3.092000 # 1HT SPE
184 184 2 -0.847600 2.747000 13.190000 24.746000 # 2OT SPE
185 185 1 0.423800 1.873000 13.490000 25.006001 # 1HT SPE
186 186 1 0.423800 3.316000 13.949000 24.597000 # 1HT SPE
187 187 2 -0.847600 1.741000 29.687000 12.029000 # 2OT SPE
188 188 1 0.423800 1.744000 29.249001 12.884000 # 1HT SPE
189 189 1 0.423800 2.357000 29.245001 11.441000 # 1HT SPE
190 190 2 -0.847600 33.749001 27.218000 11.556000 # 2OT SPE
191 191 1 0.423800 34.439999 27.798000 11.885000 # 1HT SPE
192 192 1 0.423800 33.995998 26.304001 11.713000 # 1HT SPE
193 193 2 -0.847600 29.427000 19.513000 5.649000 # 2OT SPE
194 194 1 0.423800 28.486000 19.698999 5.681000 # 1HT SPE
195 195 1 0.423800 29.606001 18.882000 4.948000 # 1HT SPE
196 196 2 -0.847600 30.815001 26.193001 25.507000 # 2OT SPE
197 197 1 0.423800 30.737000 26.164000 24.551001 # 1HT SPE
198 198 1 0.423800 30.023001 25.825001 25.903999 # 1HT SPE
199 199 2 -0.847600 5.634000 16.089001 16.059000 # 2OT SPE
200 200 1 0.423800 5.047000 16.250000 15.317000 # 1HT SPE
201 201 1 0.423800 5.324000 16.577999 16.825001 # 1HT SPE
202 202 2 -0.847600 2.631000 17.812000 19.556000 # 2OT SPE
203 203 1 0.423800 1.924000 17.207001 19.791000 # 1HT SPE
204 204 1 0.423800 3.396000 17.641001 20.111000 # 1HT SPE
205 205 2 -0.847600 34.460999 1.055000 36.848999 # 2OT SPE
206 206 1 0.423800 34.962002 1.858000 36.689999 # 1HT SPE
207 207 1 0.423800 33.645000 1.082000 36.345001 # 1HT SPE
208 208 2 -0.847600 10.072000 26.087000 15.419000 # 2OT SPE
209 209 1 0.423800 9.331000 25.707001 15.896000 # 1HT SPE
210 210 1 0.423800 9.850000 26.976999 15.138000 # 1HT SPE
211 211 2 -0.847600 31.804001 29.073000 21.291000 # 2OT SPE
212 212 1 0.423800 31.597000 28.747999 20.410999 # 1HT SPE
213 213 1 0.423800 32.750999 29.209000 21.368000 # 1HT SPE
214 214 2 -0.847600 16.195999 16.871000 5.566000 # 2OT SPE
215 215 1 0.423800 16.292999 17.622000 4.975000 # 1HT SPE
216 216 1 0.423800 15.269000 16.625999 5.621000 # 1HT SPE
217 217 2 -0.847600 6.346000 26.304001 27.451000 # 2OT SPE
218 218 1 0.423800 7.258000 26.322001 27.750000 # 1HT SPE
219 219 1 0.423800 6.069000 25.393999 27.320000 # 1HT SPE
220 220 2 -0.847600 20.871000 24.215000 24.216999 # 2OT SPE
221 221 1 0.423800 20.136999 24.433001 23.638000 # 1HT SPE
222 222 1 0.423800 20.768000 23.316999 24.541000 # 1HT SPE
223 223 2 -0.847600 28.708000 14.480000 15.036000 # 2OT SPE
224 224 1 0.423800 28.903999 13.540000 15.036000 # 1HT SPE
225 225 1 0.423800 27.926001 14.643000 14.503000 # 1HT SPE
226 226 2 -0.847600 22.823000 6.230000 11.558000 # 2OT SPE
227 227 1 0.423800 22.231001 6.433000 10.830000 # 1HT SPE
228 228 1 0.423800 22.392000 5.618000 12.160000 # 1HT SPE
229 229 2 -0.847600 6.909000 23.702999 4.042000 # 2OT SPE
230 230 1 0.423800 6.025000 24.068001 3.957000 # 1HT SPE
231 231 1 0.423800 7.469000 24.325001 4.513000 # 1HT SPE
232 232 2 -0.847600 7.585000 18.576000 2.471000 # 2OT SPE
233 233 1 0.423800 8.368000 18.232000 2.035000 # 1HT SPE
234 234 1 0.423800 7.294000 19.374001 2.025000 # 1HT SPE
235 235 2 -0.847600 8.792000 27.816999 29.301001 # 2OT SPE
236 236 1 0.423800 7.919000 28.032000 28.965000 # 1HT SPE
237 237 1 0.423800 9.359000 28.589001 29.238001 # 1HT SPE
238 238 2 -0.847600 1.001000 28.681999 6.839000 # 2OT SPE
239 239 1 0.423800 1.949000 28.584000 6.726000 # 1HT SPE
240 240 1 0.423800 0.820000 29.100000 7.685000 # 1HT SPE
241 241 2 -0.847600 15.256000 19.047001 6.708000 # 2OT SPE
242 242 1 0.423800 15.730000 18.365000 7.190000 # 1HT SPE
243 243 1 0.423800 15.848000 19.466000 6.079000 # 1HT SPE
244 244 2 -0.847600 7.310000 3.273000 31.980000 # 2OT SPE
245 245 1 0.423800 7.949000 3.840000 31.541000 # 1HT SPE
246 246 1 0.423800 6.507000 3.771000 32.152000 # 1HT SPE
247 247 2 -0.847600 9.651000 32.840000 31.962000 # 2OT SPE
248 248 1 0.423800 9.630000 31.881001 32.016998 # 1HT SPE
249 249 1 0.423800 9.807000 33.104000 31.052000 # 1HT SPE
250 250 2 -0.847600 20.712999 1.782000 18.492001 # 2OT SPE
251 251 1 0.423800 21.285999 2.277000 17.902000 # 1HT SPE
252 252 1 0.423800 19.820999 2.131000 18.440001 # 1HT SPE
253 253 2 -0.847600 34.365002 7.695000 28.098000 # 2OT SPE
254 254 1 0.423800 35.000000 8.256000 28.549999 # 1HT SPE
255 255 1 0.423800 34.805000 6.903000 27.782000 # 1HT SPE
256 256 2 -0.847600 29.937000 23.962999 12.800000 # 2OT SPE
257 257 1 0.423800 30.466000 23.184000 12.613000 # 1HT SPE
258 258 1 0.423800 29.250000 23.739000 13.433000 # 1HT SPE
259 259 2 -0.847600 23.910999 9.557000 30.028999 # 2OT SPE
260 260 1 0.423800 23.297001 9.499000 29.292999 # 1HT SPE
261 261 1 0.423800 24.417000 8.744000 30.089001 # 1HT SPE
262 262 2 -0.847600 30.603001 2.142000 13.625000 # 2OT SPE
263 263 1 0.423800 31.382999 2.602000 13.306000 # 1HT SPE
264 264 1 0.423800 29.893999 2.232000 12.984000 # 1HT SPE
265 265 2 -0.847600 4.939000 33.054001 27.277000 # 2OT SPE
266 266 1 0.423800 4.813000 32.148998 27.572001 # 1HT SPE
267 267 1 0.423800 4.085000 33.451000 27.091000 # 1HT SPE
268 268 2 -0.847600 0.333000 25.577000 13.734000 # 2OT SPE
269 269 1 0.423800 0.459000 26.528000 13.701000 # 1HT SPE
270 270 1 0.423800 0.004000 25.268000 12.887000 # 1HT SPE
271 271 2 -0.847600 24.256001 1.746000 10.609000 # 2OT SPE
272 272 1 0.423800 24.032000 1.324000 9.777000 # 1HT SPE
273 273 1 0.423800 24.004000 1.174000 11.337000 # 1HT SPE
274 274 2 -0.847600 22.855000 30.754999 7.618000 # 2OT SPE
275 275 1 0.423800 21.924999 30.712999 7.855000 # 1HT SPE
276 276 1 0.423800 22.947001 31.153000 6.749000 # 1HT SPE
277 277 2 -0.847600 10.627000 11.630000 5.439000 # 2OT SPE
278 278 1 0.423800 9.930000 11.051000 5.122000 # 1HT SPE
279 279 1 0.423800 10.320000 12.107000 6.213000 # 1HT SPE
280 280 2 -0.847600 19.507000 22.128000 2.526000 # 2OT SPE
281 281 1 0.423800 20.360001 22.388000 2.883000 # 1HT SPE
282 282 1 0.423800 19.605000 21.318001 2.020000 # 1HT SPE
283 283 2 -0.847600 24.436001 4.287000 10.909000 # 2OT SPE
284 284 1 0.423800 25.209999 3.753000 10.717000 # 1HT SPE
285 285 1 0.423800 24.712000 5.147000 11.232000 # 1HT SPE
286 286 2 -0.847600 22.924999 34.999001 15.803000 # 2OT SPE
287 287 1 0.423800 23.778999 34.756001 16.167999 # 1HT SPE
288 288 1 0.423800 22.535000 34.237999 15.367000 # 1HT SPE
289 289 2 -0.847600 32.840000 14.549000 21.948999 # 2OT SPE
290 290 1 0.423800 31.931999 14.862000 21.938000 # 1HT SPE
291 291 1 0.423800 32.847000 13.593000 22.035999 # 1HT SPE
292 292 2 -0.847600 8.928000 12.562000 35.119999 # 2OT SPE
293 293 1 0.423800 9.005000 12.370000 36.057999 # 1HT SPE
294 294 1 0.423800 9.539000 12.008000 34.629002 # 1HT SPE
295 295 2 -0.847600 1.564000 11.294000 32.341000 # 2OT SPE
296 296 1 0.423800 0.946000 11.622000 32.999001 # 1HT SPE
297 297 1 0.423800 2.033000 10.535000 32.693001 # 1HT SPE
298 298 2 -0.847600 34.721001 26.288000 30.014000 # 2OT SPE
299 299 1 0.423800 34.419998 25.422001 30.299000 # 1HT SPE
300 300 1 0.423800 33.964001 26.827999 29.775999 # 1HT SPE
301 301 2 -0.847600 23.143999 21.112000 13.295000 # 2OT SPE
302 302 1 0.423800 23.112000 21.743000 12.573000 # 1HT SPE
303 303 1 0.423800 22.996000 20.226999 12.954000 # 1HT SPE
304 304 2 -0.847600 28.555000 28.556000 22.711000 # 2OT SPE
305 305 1 0.423800 29.153999 29.030001 23.292999 # 1HT SPE
306 306 1 0.423800 27.978001 29.181999 22.268000 # 1HT SPE
307 307 2 -0.847600 32.835999 8.480000 4.171000 # 2OT SPE
308 308 1 0.423800 33.341000 8.721000 3.391000 # 1HT SPE
309 309 1 0.423800 33.258999 8.845000 4.952000 # 1HT SPE
310 310 2 -0.847600 30.157000 19.582001 28.684999 # 2OT SPE
311 311 1 0.423800 30.065001 20.483000 29.004999 # 1HT SPE
312 312 1 0.423800 31.087999 19.362000 28.608999 # 1HT SPE
313 313 2 -0.847600 25.962000 1.214000 34.728001 # 2OT SPE
314 314 1 0.423800 26.219999 2.136000 34.806000 # 1HT SPE
315 315 1 0.423800 26.747999 0.666000 34.668999 # 1HT SPE
316 316 2 -0.847600 30.790001 14.396000 14.316000 # 2OT SPE
317 317 1 0.423800 30.993999 13.537000 13.940000 # 1HT SPE
318 318 1 0.423800 31.589001 14.788000 14.675000 # 1HT SPE
319 319 2 -0.847600 12.353000 22.032000 10.426000 # 2OT SPE
320 320 1 0.423800 13.312000 22.023001 10.383000 # 1HT SPE
321 321 1 0.423800 12.026000 22.881001 10.121000 # 1HT SPE
322 322 2 -0.847600 13.706000 8.201000 11.810000 # 2OT SPE
323 323 1 0.423800 12.926000 8.719000 12.020000 # 1HT SPE
324 324 1 0.423800 13.451000 7.291000 11.643000 # 1HT SPE
325 325 2 -0.847600 27.454000 5.819000 12.207000 # 2OT SPE
326 326 1 0.423800 26.607000 6.081000 11.839000 # 1HT SPE
327 327 1 0.423800 27.375999 4.950000 12.605000 # 1HT SPE
328 328 2 -0.847600 20.377001 8.741000 3.991000 # 2OT SPE
329 329 1 0.423800 20.410999 7.788000 4.104000 # 1HT SPE
330 330 1 0.423800 20.948999 9.161000 4.637000 # 1HT SPE
331 331 2 -0.847600 25.986000 19.219000 17.323999 # 2OT SPE
332 332 1 0.423800 25.504999 18.726000 17.992001 # 1HT SPE
333 333 1 0.423800 26.204000 18.638000 16.591999 # 1HT SPE
334 334 2 -0.847600 33.928001 8.795000 32.640999 # 2OT SPE
335 335 1 0.423800 33.042000 9.156000 32.723000 # 1HT SPE
336 336 1 0.423800 34.554001 9.382000 33.070999 # 1HT SPE
337 337 2 -0.847600 13.293000 30.966000 19.309999 # 2OT SPE
338 338 1 0.423800 12.425000 31.375000 19.257000 # 1HT SPE
339 339 1 0.423800 13.339000 30.233000 18.693001 # 1HT SPE
340 340 2 -0.847600 20.372999 20.968000 12.829000 # 2OT SPE
341 341 1 0.423800 20.923000 21.520000 13.390000 # 1HT SPE
342 342 1 0.423800 20.823000 20.138000 12.656000 # 1HT SPE
343 343 2 -0.847600 5.606000 29.530001 14.159000 # 2OT SPE
344 344 1 0.423800 6.397000 29.886000 13.748000 # 1HT SPE
345 345 1 0.423800 5.068000 30.250000 14.496000 # 1HT SPE
346 346 2 -0.847600 28.475000 9.711000 28.396000 # 2OT SPE
347 347 1 0.423800 29.083000 10.445000 28.281000 # 1HT SPE
348 348 1 0.423800 27.787001 9.758000 27.728001 # 1HT SPE
349 349 2 -0.847600 19.143000 10.707000 22.120001 # 2OT SPE
350 350 1 0.423800 18.636000 10.542000 21.320999 # 1HT SPE
351 351 1 0.423800 18.923000 11.575000 22.466000 # 1HT SPE
352 352 2 -0.847600 14.537000 4.905000 22.819000 # 2OT SPE
353 353 1 0.423800 15.322000 4.966000 22.270000 # 1HT SPE
354 354 1 0.423800 14.476000 5.684000 23.378000 # 1HT SPE
355 355 2 -0.847600 11.604000 21.245001 7.885000 # 2OT SPE
356 356 1 0.423800 11.111000 21.558001 7.124000 # 1HT SPE
357 357 1 0.423800 11.129000 21.469000 8.689000 # 1HT SPE
358 358 2 -0.847600 4.132000 12.647000 12.421000 # 2OT SPE
359 359 1 0.423800 3.436000 13.124000 11.964000 # 1HT SPE
360 360 1 0.423800 4.912000 12.606000 11.863000 # 1HT SPE
361 361 2 -0.847600 20.093000 12.856000 20.735001 # 2OT SPE
362 362 1 0.423800 19.152000 12.788000 20.561001 # 1HT SPE
363 363 1 0.423800 20.473000 11.976000 20.792000 # 1HT SPE
364 364 2 -0.847600 20.916000 30.083000 33.132000 # 2OT SPE
365 365 1 0.423800 20.659000 29.158001 33.141998 # 1HT SPE
366 366 1 0.423800 21.424999 30.282000 33.921001 # 1HT SPE
367 367 2 -0.847600 27.878000 0.471000 7.378000 # 2OT SPE
368 368 1 0.423800 28.650999 0.004000 7.052000 # 1HT SPE
369 369 1 0.423800 27.517000 0.004000 8.135000 # 1HT SPE
370 370 2 -0.847600 31.797001 10.636000 30.188999 # 2OT SPE
371 371 1 0.423800 31.546000 10.238000 29.351999 # 1HT SPE
372 372 1 0.423800 32.693001 10.974000 30.128000 # 1HT SPE
373 373 2 -0.847600 22.653000 14.688000 36.153999 # 2OT SPE
374 374 1 0.423800 22.589001 15.621000 35.933998 # 1HT SPE
375 375 1 0.423800 22.148001 14.174000 35.520000 # 1HT SPE
376 376 2 -0.847600 9.515000 19.311001 23.163000 # 2OT SPE
377 377 1 0.423800 10.229000 19.184999 23.792000 # 1HT SPE
378 378 1 0.423800 9.560000 20.198000 22.799999 # 1HT SPE
379 379 2 -0.847600 31.910999 14.305000 34.652000 # 2OT SPE
380 380 1 0.423800 31.568001 14.176000 35.539001 # 1HT SPE
381 381 1 0.423800 31.422001 13.754000 34.035999 # 1HT SPE
382 382 2 -0.847600 17.833000 10.552000 33.070999 # 2OT SPE
383 383 1 0.423800 17.607000 11.473000 33.220001 # 1HT SPE
384 384 1 0.423800 18.775000 10.477000 32.901001 # 1HT SPE
385 385 2 -0.847600 30.184000 28.004000 28.018999 # 2OT SPE
386 386 1 0.423800 30.010000 27.108999 27.718000 # 1HT SPE
387 387 1 0.423800 30.875000 27.988001 28.686001 # 1HT SPE
388 388 2 -0.847600 16.823999 10.881000 27.257999 # 2OT SPE
389 389 1 0.423800 17.754000 11.117000 27.306000 # 1HT SPE
390 390 1 0.423800 16.604000 10.627000 26.358999 # 1HT SPE
391 391 2 -0.847600 22.448000 33.255001 8.156000 # 2OT SPE
392 392 1 0.423800 21.507999 33.080002 8.245000 # 1HT SPE
393 393 1 0.423800 22.756001 33.743000 8.923000 # 1HT SPE
394 394 2 -0.847600 2.357000 18.709000 7.011000 # 2OT SPE
395 395 1 0.423800 1.950000 19.353001 7.596000 # 1HT SPE
396 396 1 0.423800 3.282000 18.605000 7.244000 # 1HT SPE
397 397 2 -0.847600 12.880000 19.907000 37.513000 # 2OT SPE
398 398 1 0.423800 13.615000 20.289000 37.998001 # 1HT SPE
399 399 1 0.423800 12.562000 20.539000 36.863998 # 1HT SPE
400 400 2 -0.847600 13.364000 26.471001 11.015000 # 2OT SPE
401 401 1 0.423800 12.715000 27.115999 11.306000 # 1HT SPE
402 402 1 0.423800 14.200000 26.636000 11.456000 # 1HT SPE
403 403 2 -0.847600 28.605000 21.834000 12.546000 # 2OT SPE
404 404 1 0.423800 28.645000 22.336000 11.729000 # 1HT SPE
405 405 1 0.423800 27.721001 21.476999 12.660000 # 1HT SPE
406 406 2 -0.847600 0.688000 18.271000 27.448999 # 2OT SPE
407 407 1 0.423800 0.003000 18.357000 26.783001 # 1HT SPE
408 408 1 0.423800 0.692000 17.372999 27.791000 # 1HT SPE
409 409 2 -0.847600 8.282000 18.941999 27.448999 # 2OT SPE
410 410 1 0.423800 7.810000 18.278999 26.940001 # 1HT SPE
411 411 1 0.423800 8.429000 18.617001 28.340000 # 1HT SPE
412 412 2 -0.847600 31.021999 16.073999 27.160000 # 2OT SPE
413 413 1 0.423800 31.788000 16.114000 27.738001 # 1HT SPE
414 414 1 0.423800 30.223000 16.035000 27.691000 # 1HT SPE
415 415 2 -0.847600 26.454000 19.847000 30.420000 # 2OT SPE
416 416 1 0.423800 25.896999 19.226000 29.943001 # 1HT SPE
417 417 1 0.423800 27.261000 20.000999 29.923000 # 1HT SPE
418 418 2 -0.847600 28.271999 6.006000 10.102000 # 2OT SPE
419 419 1 0.423800 29.031000 6.167000 9.537000 # 1HT SPE
420 420 1 0.423800 27.642000 6.724000 10.004000 # 1HT SPE
421 421 2 -0.847600 11.093000 0.654000 29.000000 # 2OT SPE
422 422 1 0.423800 11.762000 0.013000 28.752001 # 1HT SPE
423 423 1 0.423800 11.476000 1.534000 29.002001 # 1HT SPE
424 424 2 -0.847600 8.607000 26.667000 31.465000 # 2OT SPE
425 425 1 0.423800 8.499000 26.301001 32.346001 # 1HT SPE
426 426 1 0.423800 8.207000 27.538000 31.429001 # 1HT SPE
427 427 2 -0.847600 30.302000 16.268999 6.498000 # 2OT SPE
428 428 1 0.423800 30.448000 17.188999 6.265000 # 1HT SPE
429 429 1 0.423800 31.125999 15.783000 6.414000 # 1HT SPE
430 430 2 -0.847600 3.910000 11.075000 18.737000 # 2OT SPE
431 431 1 0.423800 4.558000 10.470000 18.368999 # 1HT SPE
432 432 1 0.423800 3.031000 10.813000 18.455000 # 1HT SPE
433 433 2 -0.847600 18.214001 1.978000 12.078000 # 2OT SPE
434 434 1 0.423800 17.473000 2.082000 11.476000 # 1HT SPE
435 435 1 0.423800 18.473000 1.054000 12.111000 # 1HT SPE
436 436 2 -0.847600 5.845000 32.985001 18.750999 # 2OT SPE
437 437 1 0.423800 5.217000 32.380001 18.347000 # 1HT SPE
438 438 1 0.423800 5.382000 33.765999 19.061001 # 1HT SPE
439 439 2 -0.847600 11.040000 15.846000 35.537998 # 2OT SPE
440 440 1 0.423800 10.119000 16.100000 35.442001 # 1HT SPE
441 441 1 0.423800 11.487000 15.940000 34.693001 # 1HT SPE
442 442 2 -0.847600 25.583000 5.527000 8.704000 # 2OT SPE
443 443 1 0.423800 25.733999 6.405000 8.345000 # 1HT SPE
444 444 1 0.423800 24.691999 5.474000 9.056000 # 1HT SPE
445 445 2 -0.847600 18.308001 4.503000 29.775999 # 2OT SPE
446 446 1 0.423800 18.077000 3.618000 29.486000 # 1HT SPE
447 447 1 0.423800 19.166000 4.743000 29.420000 # 1HT SPE
448 448 2 -0.847600 14.207000 15.895000 21.028999 # 2OT SPE
449 449 1 0.423800 13.941000 14.973000 21.047001 # 1HT SPE
450 450 1 0.423800 14.532000 16.117001 20.153000 # 1HT SPE
451 451 2 -0.847600 5.007000 32.594002 23.299999 # 2OT SPE
452 452 1 0.423800 5.878000 32.534000 22.900000 # 1HT SPE
453 453 1 0.423800 4.602000 33.431000 23.062000 # 1HT SPE
454 454 2 -0.847600 24.593000 16.429001 10.491000 # 2OT SPE
455 455 1 0.423800 24.073000 17.236000 10.516000 # 1HT SPE
456 456 1 0.423800 25.525000 16.646000 10.570000 # 1HT SPE
457 457 2 -0.847600 31.108000 11.490000 33.341999 # 2OT SPE
458 458 1 0.423800 31.041000 10.575000 33.056999 # 1HT SPE
459 459 1 0.423800 30.820000 11.563000 34.255001 # 1HT SPE
460 460 2 -0.847600 24.462000 5.817000 26.551001 # 2OT SPE
461 461 1 0.423800 24.622000 6.754000 26.684999 # 1HT SPE
462 462 1 0.423800 25.280001 5.386000 26.291000 # 1HT SPE
463 463 2 -0.847600 30.226999 34.856998 13.593000 # 2OT SPE
464 464 1 0.423800 30.973000 34.619999 14.149000 # 1HT SPE
465 465 1 0.423800 29.601999 34.130001 13.568000 # 1HT SPE
466 466 2 -0.847600 14.773000 11.313000 14.602000 # 2OT SPE
467 467 1 0.423800 13.960000 10.930000 14.941000 # 1HT SPE
468 468 1 0.423800 14.599000 12.200000 14.280000 # 1HT SPE
469 469 2 -0.847600 34.091000 14.941000 11.763000 # 2OT SPE
470 470 1 0.423800 33.886002 14.457000 10.959000 # 1HT SPE
471 471 1 0.423800 33.842999 14.414000 12.526000 # 1HT SPE
472 472 2 -0.847600 33.347000 25.725000 18.874001 # 2OT SPE
473 473 1 0.423800 33.057999 25.680000 17.959000 # 1HT SPE
474 474 1 0.423800 32.933998 25.017000 19.375000 # 1HT SPE
475 475 2 -0.847600 20.861000 18.563999 23.731001 # 2OT SPE
476 476 1 0.423800 20.261999 17.837000 23.542999 # 1HT SPE
477 477 1 0.423800 21.011000 18.618999 24.677999 # 1HT SPE
478 478 2 -0.847600 21.438999 12.966000 12.274000 # 2OT SPE
479 479 1 0.423800 21.488001 12.010000 12.345000 # 1HT SPE
480 480 1 0.423800 21.451000 13.219000 11.348000 # 1HT SPE
481 481 2 -0.847600 16.205999 0.002000 35.292000 # 2OT SPE
482 482 1 0.423800 16.287001 0.438000 34.439999 # 1HT SPE
483 483 1 0.423800 16.622000 0.540000 35.967999 # 1HT SPE
484 484 2 -0.847600 8.347000 25.937000 2.007000 # 2OT SPE
485 485 1 0.423800 8.374000 26.896999 2.031000 # 1HT SPE
486 486 1 0.423800 7.448000 25.638000 2.158000 # 1HT SPE
487 487 2 -0.847600 6.168000 4.954000 17.763000 # 2OT SPE
488 488 1 0.423800 5.663000 5.509000 17.163000 # 1HT SPE
489 489 1 0.423800 5.829000 4.057000 17.731001 # 1HT SPE
490 490 2 -0.847600 10.304000 9.663000 28.427999 # 2OT SPE
491 491 1 0.423800 9.367000 9.875000 28.429001 # 1HT SPE
492 492 1 0.423800 10.812000 10.460000 28.594000 # 1HT SPE
493 493 2 -0.847600 3.503000 16.889000 36.990002 # 2OT SPE
494 494 1 0.423800 3.130000 17.650000 36.539001 # 1HT SPE
495 495 1 0.423800 3.468000 17.030001 37.938999 # 1HT SPE
496 496 2 -0.847600 6.731000 22.278000 2.096000 # 2OT SPE
497 497 1 0.423800 5.911000 22.767000 2.192000 # 1HT SPE
498 498 1 0.423800 7.464000 22.893000 2.017000 # 1HT SPE
499 499 2 -0.847600 12.286000 12.376000 33.999001 # 2OT SPE
500 500 1 0.423800 11.812000 11.652000 33.584000 # 1HT SPE
501 501 1 0.423800 12.393000 13.092000 33.368999 # 1HT SPE
502 502 2 -0.847600 8.280000 7.020000 10.721000 # 2OT SPE
503 503 1 0.423800 8.003000 7.712000 11.327000 # 1HT SPE
504 504 1 0.423800 7.755000 6.231000 10.874000 # 1HT SPE